{
  "entity": "Gold",
  "properties": {
    "atomic_number": "79",
    "atomic_weight": "196.96657",
    "chemical_symbol": "Au",
    "density": "19.3 g/cm³",
    "melting_point": "1064.18 °C",
    "boiling_point": "2856 °C",
    "state": "Solid",
    "color": "Yellow",
    "luster": "Metallic",
    "group": "11",
    "type": "PreciousMetal"
  },
  "relationship": [
    {
      "instance_of": "Precious metal"
    },
    {
      "chemical_formula": "Au"
    },
    {
      "found_in_country": "South Africa"
    },
    {
      "used_for": "Jewelry"
    },
    {
      "used_for": "Investment"
    },
    {
      "extracted_from": "Ore"
    },
    {
      "refined_by": "Refinery"
    },
    {
      "has_property": "Malleability"
    },
    {
      "has_property": "Ductility"
    },
    {
      "part_of": "Periodic table"
    }
  ]
}