{
  "entity": "Nickel",
  "properties": {
    "atomic_number": "28",
    "atomic_weight": "58.6934",
    "element_category": "Transition metal",
    "appearance": "Silvery-white",
    "density": "8.908 g/cm³",
    "melting_point": "295.57 °C",
    "boiling_point": "2913 °C",
    "electronegativity": "1.91 (Pauling scale)",
    "oxidation_states": "-1, 0, +1, +2, +3",
    "abundance_crust": "0.0065%",
    "type": "Chemical element"
  },
  "relationship": [
    {
      "instance_of": "element"
    },
    {
      "part_of": "Periodic table"
    },
    {
      "chemical_formula": "Ni"
    },
    {
      "used_in": "Stainless steel"
    },
    {
      "found_in": "Earth"
    },
    {
      "used_for": "Batteries"
    },
    {
      "extracted_from": "Pentlandite"
    },
    {
      "alloy_of": "Nickel alloys"
    },
    {
      "related_to": "Iron"
    },
    {
      "used_in": "Coins"
    }
  ]
}