{
  "entity": "Silver",
  "properties": {
    "atomic_number": "47",
    "atomic_weight": "107.8682",
    "chemical_symbol": "Ag",
    "density": "10.49 g/cm³",
    "melting_point": "993.77 K",
    "boiling_point": "2835 K",
    "state": "Solid",
    "group": "11",
    "period": "5",
    "appearance": "Silvery-white",
    "type": "ChemicalElement"
  },
  "relationship": [
    {
      "instance_of": "metal"
    },
    {
      "chemical_formula": "Ag"
    },
    {
      "atomic_number": "61"
    },
    {
      "used_in": "jewelry"
    },
    {
      "used_in": "photography"
    },
    {
      "found_in": "Earth"
    },
    {
      "extracted_from": "ores"
    },
    {
      "alloy_of": "sterling_silver"
    },
    {
      "used_by": "Ancient_Egypt"
    },
    {
      "has_property": "luster"
    }
  ]
}